⭐️ Filesystem Recorder (fs-record)
Mount directory /tmp/compatlib2944683821
Mounted!
proot -S /tmp/compatlib2944683821 -0 lmp -v x 4 -v y 4 -v z 4 -in ./in.reaxc.hns -nocite
WARNING on proc 0: Cannot open log.lammps for writing: Read-only file system (src/lammps.cpp:486)
LAMMPS (29 Sep 2021 - Update 1)
OMP_NUM_THREADS environment is not set. Defaulting to 1 thread. (src/comm.cpp:98)
  using 1 OpenMP thread(s) per MPI task
Reading data file ...
  triclinic box = (0.0000000 0.0000000 0.0000000) to (22.326000 11.141200 13.778966) with tilt (0.0000000 -5.0260300 0.0000000)
  1 by 1 by 1 MPI processor grid
  reading atoms ...
  304 atoms
  reading velocities ...
  304 velocities
  read_data CPU = 0.002 seconds
Replicating atoms ...
  triclinic box = (0.0000000 0.0000000 0.0000000) to (89.304000 44.564800 55.115864) with tilt (0.0000000 -20.104120 0.0000000)
  1 by 1 by 1 MPI processor grid
  bounding box image = (0 -1 -1) to (0 1 1)
  bounding box extra memory = 0.03 MB
  average # of replicas added to proc = 64.00 out of 64 (100.00%)
  19456 atoms
  replicate CPU = 0.002 seconds
Neighbor list info ...
  update every 20 steps, delay 0 steps, check no
  max neighbors/atom: 2000, page size: 100000
  master list distance cutoff = 11
  ghost atom cutoff = 11
  binsize = 5.5, bins = 20 9 11
  2 neighbor lists, perpetual/occasional/extra = 2 0 0
  (1) pair reax/c, perpetual
      attributes: half, newton off, ghost
      pair build: half/bin/newtoff/ghost
      stencil: full/ghost/bin/3d
      bin: standard
  (2) fix qeq/reax, perpetual, copy from (1)
      attributes: half, newton off, ghost
      pair build: copy
      stencil: none
      bin: none
Setting up Verlet run ...
  Unit style    : real
  Current step  : 0
  Time step     : 0.1
Per MPI rank memory allocation (min/avg/max) = 876.7 | 876.7 | 876.7 Mbytes
Step Temp PotEng Press E_vdwl E_coul Volume 
       0          300   -113.27833    438.83649   -111.57687   -1.7014647    219350.94 
      10     301.2473   -113.28192    1324.9169   -111.58051   -1.7014165    219350.94 
      20    302.25626   -113.28484    2550.2991   -111.58354   -1.7012946    219350.94 
      30    301.57272    -113.2826    5400.3808   -111.58154   -1.7010543    219350.94 
      40    299.70198   -113.27693    7272.9168   -111.57623   -1.7007065    219350.94 
      50    297.28908   -113.26968    6610.3957   -111.56937   -1.7003127    219350.94 
      60    294.64774    -113.2617    5720.4404   -111.56178   -1.6999183    219350.94 
      70    293.92945   -113.25953    5709.7926   -111.56001   -1.6995234    219350.94 
      80    296.72365   -113.26783    6678.2101   -111.56871    -1.699117    219350.94 
      90    301.41819   -113.28184    8078.0706   -111.58311   -1.6987273    219350.94 
     100    303.68663   -113.28857    10072.347   -111.59016   -1.6984125    219350.94 
Loop time of 98.7133 on 1 procs for 100 steps with 19456 atoms

Performance: 0.009 ns/day, 2742.036 hours/ns, 1.013 timesteps/s
100.0% CPU use with 1 MPI tasks x 1 OpenMP threads

MPI task timing breakdown:
Section |  min time  |  avg time  |  max time  |%varavg| %total
---------------------------------------------------------------
Pair    | 66.986     | 66.986     | 66.986     |   0.0 | 67.86
Neigh   | 0.91038    | 0.91038    | 0.91038    |   0.0 |  0.92
Comm    | 0.014547   | 0.014547   | 0.014547   |   0.0 |  0.01
Output  | 0.0015826  | 0.0015826  | 0.0015826  |   0.0 |  0.00
Modify  | 30.799     | 30.799     | 30.799     |   0.0 | 31.20
Other   |            | 0.00193    |            |       |  0.00

Nlocal:        19456.0 ave       19456 max       19456 min
Histogram: 1 0 0 0 0 0 0 0 0 0
Nghost:        31572.0 ave       31572 max       31572 min
Histogram: 1 0 0 0 0 0 0 0 0 0
Neighs:    5.74690e+06 ave  5.7469e+06 max  5.7469e+06 min
Histogram: 1 0 0 0 0 0 0 0 0 0

Total # of neighbors = 5746895
Ave neighs/atom = 295.37906
Neighbor list builds = 5
Dangerous builds not checked
Total wall time: 0:01:40
Command is done running
Cleaning up /tmp/compatlib2944683821...
Output file written to /tmp/out/lammps-recording.out